version 2
run General-0-20130421-23:25:18-10300
attr configname General
attr datetime 20130421-23:25:18
attr experiment General
attr inifile omnetpp.ini
attr iterationvars ""
attr iterationvars2 $repetition=0
attr measurement ""
attr network Dumbell
attr processid 10300
attr repetition 0
attr replication #0
attr resultdir results
attr runnumber 0
attr seedset 0

vector 3  Dumbell.host[1]  cRate:vector  ETV
attr interpolationmode  sample-hold
attr source  dataRate
attr title  "dataRate, vector"
vector 11  Dumbell.host[5]  cRate:vector  ETV
attr interpolationmode  sample-hold
attr source  dataRate
attr title  "dataRate, vector"
vector 34  Dumbell.switch[1].conP[4]  qlen:vector  ETV
attr interpolationmode  linear
attr source  QLen
attr title  "queue size, vector"
vector 5  Dumbell.host[2]  cRate:vector  ETV
attr interpolationmode  sample-hold
attr source  dataRate
attr title  "dataRate, vector"
vector 24  Dumbell.switch[0].conP[4]  qlen:vector  ETV
attr interpolationmode  linear
attr source  QLen
attr title  "queue size, vector"
vector 15  Dumbell.host[7]  cRate:vector  ETV
attr interpolationmode  sample-hold
attr source  dataRate
attr title  "dataRate, vector"
vector 9  Dumbell.host[4]  cRate:vector  ETV
attr interpolationmode  sample-hold
attr source  dataRate
attr title  "dataRate, vector"
vector 7  Dumbell.host[3]  cRate:vector  ETV
attr interpolationmode  sample-hold
attr source  dataRate
attr title  "dataRate, vector"
vector 13  Dumbell.host[6]  cRate:vector  ETV
attr interpolationmode  sample-hold
attr source  dataRate
attr title  "dataRate, vector"
vector 28  Dumbell.switch[1].conP[1]  qlen:vector  ETV
attr interpolationmode  linear
attr source  QLen
attr title  "queue size, vector"
vector 1  Dumbell.host[0]  cRate:vector  ETV
attr interpolationmode  sample-hold
attr source  dataRate
attr title  "dataRate, vector"
vector 18  Dumbell.switch[0].conP[1]  qlen:vector  ETV
attr interpolationmode  linear
attr source  QLen
attr title  "queue size, vector"
vector 30  Dumbell.switch[1].conP[2]  qlen:vector  ETV
attr interpolationmode  linear
attr source  QLen
attr title  "queue size, vector"
vector 16  Dumbell.switch[0].conP[0]  qlen:vector  ETV
attr interpolationmode  linear
attr source  QLen
attr title  "queue size, vector"
vector 35  Dumbell.switch[1].conP[4]  fbCnt:vector  ETV
attr interpolationmode  none
attr source  fbCnt
attr title  "fb counter, vector"
vector 25  Dumbell.switch[0].conP[4]  fbCnt:vector  ETV
attr interpolationmode  none
attr source  fbCnt
attr title  "fb counter, vector"
vector 32  Dumbell.switch[1].conP[3]  qlen:vector  ETV
attr interpolationmode  linear
attr source  QLen
attr title  "queue size, vector"
vector 26  Dumbell.switch[1].conP[0]  qlen:vector  ETV
attr interpolationmode  linear
attr source  QLen
attr title  "queue size, vector"
vector 22  Dumbell.switch[0].conP[3]  qlen:vector  ETV
attr interpolationmode  linear
attr source  QLen
attr title  "queue size, vector"
vector 2  Dumbell.host[1]  Rtt:vector  ETV
attr interpolationmode  linear
attr source  RTT
attr title  "RTT measurment, vector"
vector 20  Dumbell.switch[0].conP[2]  qlen:vector  ETV
attr interpolationmode  linear
attr source  QLen
attr title  "queue size, vector"
vector 14  Dumbell.host[7]  Rtt:vector  ETV
attr interpolationmode  linear
attr source  RTT
attr title  "RTT measurment, vector"
vector 23  Dumbell.switch[0].conP[3]  fbCnt:vector  ETV
attr interpolationmode  none
attr source  fbCnt
attr title  "fb counter, vector"
vector 12  Dumbell.host[6]  Rtt:vector  ETV
attr interpolationmode  linear
attr source  RTT
attr title  "RTT measurment, vector"
vector 0  Dumbell.host[0]  Rtt:vector  ETV
attr interpolationmode  linear
attr source  RTT
attr title  "RTT measurment, vector"
vector 8  Dumbell.host[4]  Rtt:vector  ETV
attr interpolationmode  linear
attr source  RTT
attr title  "RTT measurment, vector"
0	16176	0.0969488	0.0969488
1	1247	0.015504	1000000
1	1418	0.016530591699	1000000
1	1591	0.017561588597	1000000
1	1610	0.017696	1000000
1	1645	0.017936	10000000
1	1801	0.018936	1000000
1	1912	0.019544	1000000
1	2422	0.022336	1000000
1	2452	0.02248	1000000
1	2464	0.022576	10000000
1	2527	0.022816	10000000
1	2713	0.023816	1000000
1	2796	0.024256	1000000
1	3107	0.025912	1000000
1	3164	0.026152	10000000
1	3354	0.027152	1000000
1	3384	0.02736	1000000
1	3600	0.028504	1000000
1	3650	0.028744	10000000
1	3836	0.029744	1000000
1	3982	0.030632516973	1000000
1	3989	0.030656	1000000
1	4027	0.030816	1000000
1	4076	0.031056	10000000
1	4257	0.032056	1000000
1	4387	0.0328	1000000
1	4434	0.03304	10000000
1	4624	0.03404	1000000
1	4710	0.034456	1000000
1	4764	0.034696	10000000
1	4938	0.035696	1000000
1	5043	0.036224	1000000
1	5111	0.036464	10000000
1	5292	0.037464	1000000
1	5475	0.038443461316	1000000
1	5615	0.039288	1000000
1	5919	0.04084	1000000
1	5973	0.04108	10000000
1	6124	0.041848	10000000
1	6172	0.0420744	10000000
1	6181	0.04208	1000000
1	6182	0.042088	10000000
1	6215	0.042284	10000000
1	6221	0.042328	10000000
1	6273	0.042568	10000000
1	6315	0.042728	10000000
1	6360	0.042936	10000000
1	6395	0.043128	10000000
1	6445	0.0433496	10000000
1	6493	0.043568	1000000
1	6495	0.0435784	1000000
1	6644	0.044344	1000000
1	6698	0.044584	10000000
1	6749	0.044824	10000000
1	6798	0.045064	10000000
1	6837	0.045304	10000000
1	6886	0.045544	10000000
1	7071	0.046544	1000000
1	7169	0.0470344	1000000
1	7211	0.0472744	10000000
1	7418	0.0482744	1000000
1	7481	0.0486664	1000000
1	7523	0.0489064	10000000
1	7702	0.0499064	1000000
1	7832	0.0505224	1000000
1	8178	0.052367999998	1000000
1	8244	0.052607999998	10000000
1	8318	0.0529384	10000000
1	8377	0.0531784	10000000
1	8394	0.0532688	10000000
1	8440	0.0534448	10000000
1	8458	0.0535088	10000000
1	8494	0.053628	10000000
1	8519	0.0537488	10000000
1	8545	0.0538568	10000000
1	8580	0.0539888	10000000
1	8587	0.0540208	10000000
1	8627	0.054188	10000000
1	8641	0.0542288	10000000
1	8669	0.0543784	10000000
1	8687	0.0544688	10000000
1	8723	0.0545632	10000000
1	8748	0.0547088	10000000
1	8760	0.0547472	10000000
1	8809	0.0549488	10000000
1	8859	0.0551336	10000000
1	8865	0.0551888	10000000
1	8924	0.0554288	10000000
1	8943	0.0554896	10000000
1	8980	0.0556688	10000000
1	9006	0.0557344	10000000
1	9036	0.0559088	10000000
1	9067	0.0560288	10000000
1	9102	0.0561488	10000000
1	9126	0.0562552	10000000
1	9161	0.0563888	10000000
1	9175	0.05644	10000000
1	9213	0.0566224	10000000
1	9222	0.0566288	10000000
1	9264	0.05682	10000000
1	9273	0.0568688	10000000
1	9306	0.0570224	10000000
1	9322	0.0571088	10000000
1	9373	0.0573488	10000000
1	9378	0.057368	10000000
1	9421	0.057528	10000000
1	9439	0.0575888	10000000
1	9482	0.0577688	10000000
1	9495	0.0578288	10000000
1	9545	0.0580112	10000000
1	9556	0.0580688	10000000
1	9608	0.0582792	10000000
1	9612	0.0583088	10000000
1	9659	0.0585088	10000000
1	9671	0.0585488	10000000
1	9709	0.0587096	10000000
1	9727	0.0587888	10000000
1	9758	0.0588968	10000000
1	9801	0.0590288	10000000
1	9808	0.0590592	10000000
1	9848	0.0592592	10000000
1	9857	0.0592688	10000000
1	9900	0.059436	10000000
1	9913	0.0595088	10000000
1	9956	0.0596832	10000000
1	9974	0.0597488	10000000
1	10012	0.0598952	10000000
1	10035	0.0599888	10000000
1	10068	0.060148	10000000
1	10086	0.0602288	10000000
1	10112	0.0603152	10000000
1	10145	0.0604688	10000000
1	10166	0.0605328	10000000
1	10201	0.0607088	10000000
1	10237	0.0608088	10000000
1	10257	0.0609488	10000000
1	10274	0.0609856	10000000
1	10328	0.0611888	10000000
1	10343	0.0612288	10000000
1	10392	0.0614288	10000000
1	10399	0.0614656	10000000
1	10443	0.0616688	10000000
1	10448	0.0616744	10000000
1	10504	0.0619088	10000000
1	10514	0.061925599999	10000000
1	10573	0.0621488	10000000
1	10580	0.062177599999	10000000
1	10619	0.0623888	10000000
1	10638	0.062435199998	10000000
1	10680	0.0626288	10000000
1	10706	0.062702399998	10000000
1	10741	0.0628688	10000000
1	10751	0.062885599998	10000000
1	10791	0.063053599998	10000000
1	10807	0.0631088	10000000
1	10854	0.063329599998	10000000
1	10863	0.0633488	10000000
1	10908	0.063575999998	10000000
1	10917	0.0635888	10000000
1	10979	0.063823199998	10000000
1	10983	0.0638288	10000000
1	11021	0.064004799998	10000000
1	11034	0.0640688	10000000
1	11072	0.064234399998	10000000
1	11090	0.0643088	10000000
1	11128	0.064479199998	10000000
1	11146	0.0645488	10000000
1	11172	0.064639999998	10000000
1	11210	0.0647888	10000000
1	11241	0.064903199998	10000000
1	11271	0.0650288	10000000
1	11297	0.065135999998	10000000
1	11332	0.0652688	10000000
1	11353	0.065353599998	10000000
1	11383	0.0655088	10000000
1	11404	0.065576799998	10000000
1	11444	0.0657488	10000000
1	11470	0.065838399998	10000000
1	11505	0.0659888	10000000
1	11517	0.066019199998	10000000
1	11556	0.0662288	10000000
1	11577	0.066305599998	10000000
1	11617	0.0664688	10000000
1	11629	0.066497599998	10000000
1	11681	0.0667088	10000000
1	11695	0.066767999998	10000000
1	11732	0.0669488	10000000
1	11754	0.066984799998	10000000
1	11806	0.0671888	10000000
1	11813	0.067221599998	10000000
1	11863	0.067419999998	10000000
1	11867	0.0674288	10000000
1	11914	0.067624799998	10000000
1	11923	0.0676688	10000000
1	11966	0.067826399998	10000000
1	11979	0.0679088	10000000
1	12010	0.068007199998	10000000
1	12045	0.0681488	10000000
1	12066	0.068234399998	10000000
1	12109	0.0683888	10000000
1	12130	0.068500799998	10000000
1	12160	0.0686288	10000000
1	12167	0.068667999998	10000000
1	12216	0.0688688	10000000
1	12230	0.068921599997	10000000
1	12272	0.0691088	10000000
1	12298	0.069213599997	10000000
1	12326	0.0693488	10000000
1	12352	0.069455199997	10000000
1	12382	0.0695888	10000000
1	12398	0.069676799997	10000000
1	12433	0.0698288	10000000
1	12454	0.069895999997	10000000
1	12479	0.0700688	10000000
1	12510	0.070146399997	10000000
1	12543	0.0703088	10000000
1	12569	0.070421599997	10000000
1	12599	0.0705488	10000000
1	12613	0.070603199997	10000000
1	12650	0.0707888	10000000
1	12660	0.070803999997	10000000
1	12716	0.0710288	10000000
1	12728	0.071056799997	10000000
1	12772	0.0712688	10000000
1	12805	0.071419199997	10000000
1	12823	0.0715088	10000000
1	12861	0.071652799997	10000000
1	12874	0.0717488	10000000
1	12915	0.071859999997	10000000
1	12943	0.0719888	10000000
1	12959	0.072070399997	10000000
1	12989	0.0722288	10000000
1	13011	0.072294399997	10000000
1	13046	0.0724688	10000000
1	13055	0.072526399997	10000000
1	13089	0.0727088	10000000
1	13092	0.072711199997	10000000
1	13135	0.072916799997	10000000
1	13144	0.0729488	10000000
1	13176	0.073129599997	10000000
1	13195	0.0731888	10000000
1	13227	0.073332799997	10000000
1	13251	0.0734288	10000000
1	13262	0.073516799997	10000000
1	13299	0.0736688	10000000
1	13313	0.073719199997	10000000
1	13347	0.0739088	10000000
1	13379	0.074050399997	10000000
1	13400	0.0741488	10000000
1	13422	0.074248799997	10000000
1	13449	0.0743888	10000000
1	13461	0.074429599997	10000000
1	13495	0.0746288	10000000
1	13528	0.074786399997	10000000
1	13547	0.0748688	10000000
1	13560	0.074946399997	10000000
1	13594	0.0751088	10000000
1	13602	0.075139999997	10000000
1	13641	0.075328799997	10000000
1	13645	0.0753488	10000000
1	13683	0.0755888	10000000
1	13696	0.075631199997	10000000
1	13721	0.075826399997	10000000
1	13725	0.0758288	10000000
1	13755	0.076032799997	10000000
1	13760	0.0760688	10000000
1	13791	0.076243199997	10000000
1	13800	0.0763088	10000000
1	13827	0.076515199997	10000000
1	13836	0.0765488	10000000
1	13860	0.076756799997	10000000
1	13864	0.0767888	10000000
1	13878	0.077001599997	10000000
1	13887	0.0770288	10000000
1	13910	0.077189599997	10000000
1	13928	0.0772688	10000000
1	13950	0.077395999997	10000000
1	13958	0.0775088	10000000
1	13973	0.077618399997	10000000
1	13981	0.0777488	10000000
1	13998	0.077892799997	10000000
1	14014	0.0779888	10000000
1	14027	0.078106399997	10000000
1	14054	0.0782288	10000000
1	14059	0.078321599997	10000000
1	14086	0.0784688	10000000
1	14091	0.078490399997	10000000
1	14114	0.0787088	10000000
1	14122	0.078724799997	10000000
1	14148	0.0789488	10000000
1	14156	0.078980799997	10000000
1	14179	0.0791888	10000000
1	14195	0.079263199997	10000000
1	14222	0.0794288	10000000
1	14233	0.079499999997	10000000
1	14255	0.0796688	10000000
1	14265	0.079708799997	10000000
1	14278	0.0799088	10000000
1	14288	0.079928799997	10000000
1	14314	0.080118399997	10000000
1	14318	0.0801488	10000000
1	14336	0.080299999997	10000000
1	14349	0.0803888	10000000
1	14381	0.080578399997	10000000
1	14385	0.0806288	10000000
1	14409	0.080831199997	10000000
1	14413	0.0808688	10000000
1	14437	0.081025599997	10000000
1	14448	0.0811088	10000000
1	14463	0.081191199997	10000000
1	14471	0.0813488	10000000
1	14481	0.081392799997	10000000
1	14505	0.0815888	10000000
1	14518	0.081678399997	10000000
1	14539	0.0818288	10000000
1	14552	0.081895999997	10000000
1	14570	0.0820688	10000000
1	14590	0.082145599997	10000000
1	14601	0.0823088	10000000
1	14621	0.082416799997	10000000
1	14632	0.0825488	10000000
1	14647	0.082599999997	10000000
1	14664	0.0827888	10000000
1	14679	0.082874399997	10000000
1	14707	0.0830288	10000000
1	14715	0.083076799997	10000000
1	14743	0.0832688	10000000
1	14750	0.083378399997	10000000
1	14769	0.0835088	10000000
1	14776	0.083549599997	10000000
1	14794	0.0837488	10000000
1	14823	0.083866399997	10000000
1	14836	0.0839888	10000000
1	14855	0.084119199997	10000000
1	14867	0.0842288	10000000
1	14891	0.084467199997	10000000
1	14895	0.0844688	10000000
1	14933	0.084700799997	10000000
1	14940	0.0847088	10000000
1	14962	0.084915999997	10000000
1	14966	0.0849488	10000000
1	14998	0.0851888	10000000
1	15003	0.085206399997	10000000
1	15036	0.0854288	10000000
1	15050	0.085546399997	10000000
1	15070	0.0856688	10000000
1	15092	0.085840799997	10000000
1	15098	0.0859088	10000000
1	15113	0.086015999997	10000000
1	15136	0.0861488	10000000
1	15146	0.086263199997	10000000
1	15177	0.0863888	10000000
1	15182	0.086436799997	10000000
1	15208	0.0866288	10000000
1	15222	0.086710399997	10000000
1	15243	0.0868688	10000000
1	15266	0.086957599997	10000000
1	15287	0.0871088	10000000
1	15297	0.087127999997	10000000
1	15329	0.0873488	10000000
1	15334	0.087446399997	10000000
1	15355	0.0875888	10000000
1	15377	0.087760799997	10000000
1	15388	0.0878288	10000000
1	15396	0.087945599997	10000000
1	15414	0.0880688	10000000
1	15426	0.088177599997	10000000
1	15449	0.0883088	10000000
1	15458	0.088385599997	10000000
1	15488	0.0885488	10000000
1	15493	0.088589599997	10000000
1	15517	0.088773599997	10000000
1	15521	0.0887888	10000000
1	15546	0.0890288	10000000
1	15556	0.089054399997	10000000
1	15583	0.0892688	10000000
1	15608	0.089426399997	10000000
1	15620	0.0895088	10000000
1	15638	0.089625599997	10000000
1	15651	0.0897488	10000000
1	15666	0.089849599997	10000000
1	15679	0.0899888	10000000
1	15694	0.090093599997	10000000
1	15709	0.0902288	10000000
1	15726	0.090327199997	10000000
1	15735	0.0904688	10000000
1	15746	0.090492799997	10000000
1	15769	0.0907088	10000000
1	15772	0.090711199997	10000000
1	15792	0.0909488	10000000
1	15800	0.091034399997	10000000
1	15812	0.0911888	10000000
1	15828	0.091277599997	10000000
1	15840	0.0914288	10000000
1	15851	0.091505599997	10000000
1	15867	0.0916688	10000000
1	15875	0.091681599997	10000000
1	15889	0.091865599997	10000000
1	15894	0.0919088	10000000
1	15905	0.092030399997	10000000
1	15909	0.0921488	10000000
1	15917	0.092200799997	10000000
1	15936	0.092398399997	10000000
1	15956	0.092575999997	10000000
1	15976	0.092828799997	10000000
1	15990	0.093055199997	10000000
1	15996	0.0931488	1000000
1	16012	0.093299999997	1000000
1	16091	0.0944528	1000000
1	16108	0.0946928	10000000
1	16142	0.0956928	1000000
1	16146	0.095859999997	1000000
1	16176	0.0969488	1000000
1	16232	0.098635999997	1000000
1	16242	0.0988768	1000000
1	16278	0.0996928	2000000
1	16331	0.1008608	2000000
1	16360	0.101267999997	2000000
1	16373	0.101507999997	10000000
1	16400	0.102379999997	10000000
1	16405	0.102507999997	1000000
1	16410	0.102699999997	1000000
1	16478	0.105371999997	1000000
1	16510	0.106507999997	2000000
1	16552	0.107355999997	2000000
1	16599	0.108243999997	2000000
1	16613	0.108483999997	10000000
1	16634	0.109327999997	10000000
1	16637	0.109483999997	1000000
1	16639	0.109496799997	1000000
1	16696	0.111752799997	1000000
1	16768	0.113483999997	2000000
1	16791	0.113952799997	2000000
1	16850	0.115644799997	2000000
1	16901	0.117016799997	2000000
1	16940	0.117948799997	2000000
1	16963	0.118483999997	4000000
1	17006	0.119456799997	4000000
1	17022	0.120006799997	4000000
1	17035	0.120440799997	4000000
1	17037	0.120495999999	4000000
1	17053	0.121064799997	4000000
1	17061	0.121464799997	4000000
1	17082	0.121922799997	4000000
1	17095	0.122162799997	10000000
1	17110	0.122416799997	10000000
1	17118	0.122623199997	10000000
1	17124	0.122913599997	10000000
1	17134	0.123154399997	10000000
1	17139	0.123162799997	1000000
1	17145	0.123345599997	1000000
1	17224	0.125177599997	1000000
1	17317	0.126847999999	1000000
1	17323	0.127162799997	2000000
1	17339	0.127857599997	2000000
1	17377	0.128785599997	2000000
1	17381	0.128903999999	2000000
1	17392	0.129143999999	10000000
1	17409	0.129689599997	10000000
1	17412	0.129850399997	10000000
1	17418	0.130049599997	10000000
1	17425	0.130143999999	1000000
1	17431	0.130262399997	1000000
1	17525	0.133206399997	1000000
1	17552	0.134143999999	2000000
1	17581	0.135086399997	2000000
1	17592	0.135326399997	10000000
1	17608	0.136114399997	10000000
1	17622	0.136326399997	1000000
1	17627	0.136366399997	1000000
1	17692	0.138518399997	1000000
1	17741	0.140326399997	2000000
1	17755	0.140622399997	2000000
1	17783	0.141506399997	2000000
1	17836	0.142666399997	2000000
1	17878	0.143758399997	2000000
1	17916	0.145110399997	2000000
1	17923	0.145326399997	4000000
1	17946	0.146254399997	4000000
1	17971	0.147026399997	4000000
1	17994	0.147448399997	4000000
1	18007	0.147688399997	10000000
1	18013	0.147872399997	10000000
1	18038	0.148153999997	10000000
1	18050	0.148384399997	10000000
1	18060	0.148574799997	10000000
1	18066	0.148688399997	1000000
1	18068	0.148757999997	1000000
1	18163	0.150885999997	1000000
1	18223	0.152688399997	2000000
1	18235	0.153197999997	2000000
1	18249	0.153437999997	10000000
1	18272	0.154273999997	10000000
1	18279	0.154437999997	1000000
1	18283	0.154449999997	1000000
1	18293	0.154689999997	10000000
1	18329	0.155689999997	1000000
1	18357	0.156585774445	1000000
1	18368	0.156857999997	1000000
1	18429	0.158473999997	1000000
1	18439	0.158713999997	10000000
1	18458	0.159713999997	1000000
1	18488	0.160305999997	1000000
1	18496	0.160545999997	10000000
1	18516	0.161545999997	1000000
1	18557	0.162499422444	1000000
1	18559	0.162601999997	1000000
1	18676	0.165481999997	1000000
1	18678	0.165545999997	2000000
1	18792	0.167713999997	2000000
1	18827	0.168705999997	2000000
1	18835	0.168871999999	2000000
1	18860	0.169529999997	2000000
1	18874	0.169769999997	10000000
1	18900	0.170553999997	10000000
1	18909	0.170729199997	10000000
1	18914	0.170769999997	1000000
1	18916	0.170889199997	1000000
1	19000	0.173385199997	1000000
1	19056	0.174769999997	2000000
1	19099	0.175921199997	2000000
1	19115	0.176415999999	2000000
1	19128	0.176837199997	2000000
1	19166	0.177993199997	2000000
1	19188	0.178809199997	2000000
1	19229	0.179769999997	4000000
1	19239	0.180093199997	4000000
1	19283	0.180991199997	4000000
1	19321	0.182049199996	4000000
1	19351	0.182623199996	4000000
1	19382	0.183195199996	4000000
1	19417	0.183785199996	4000000
1	19437	0.184293199996	4000000
1	19446	0.184455999999	4000000
1	19461	0.184695999999	10000000
1	19466	0.184837199996	10000000
1	19472	0.185061999996	10000000
1	19475	0.185225199996	10000000
1	19490	0.185429199996	10000000
1	19505	0.185630799996	10000000
1	19510	0.185669199996	10000000
1	19520	0.185974799996	10000000
1	19523	0.186197199996	10000000
1	19528	0.186414799996	10000000
1	19545	0.186585199996	10000000
1	19550	0.186669199996	1000000
1	19554	0.186933999996	1000000
1	19593	0.188359999999	1000000
1	19604	0.188781999996	1000000
1	19667	0.190669199996	2000000
1	19671	0.190925999996	2000000
1	19730	0.192433999996	2000000
1	19767	0.193341999996	2000000
1	19800	0.194189999996	2000000
1	19830	0.195329999996	2000000
1	19849	0.195669199996	4000000
1	19877	0.196245999996	4000000
1	19900	0.196645999996	4000000
1	19902	0.196719999999	4000000
1	19907	0.196959999999	10000000
1	19910	0.197165999995	10000000
1	19916	0.197365999995	10000000
1	19923	0.197547599995	10000000
1	19935	0.197959999999	1000000
1	19937	0.197964399995	1000000
1	20013	0.200180399995	1000000
1	20073	0.201959999999	2000000
1	20113	0.203116399995	2000000
1	20136	0.203952399995	2000000
1	20180	0.205244399995	2000000
1	20218	0.206279999999	2000000
1	20227	0.206340399995	2000000
1	20250	0.206959999999	4000000
1	20262	0.207216399995	4000000
1	20280	0.207628399995	4000000
1	20294	0.208170399995	4000000
1	20322	0.208828399995	4000000
1	20351	0.209296399995	4000000
1	20377	0.209850399995	4000000
1	20392	0.210308399995	4000000
1	20418	0.211014399995	4000000
1	20438	0.211534399994	4000000
1	20458	0.211959999999	8000000
1	20460	0.212006399994	8000000
1	20475	0.212270399994	8000000
1	20487	0.212499399994	8000000
1	20499	0.212699399994	8000000
1	20514	0.212989399994	8000000
1	20532	0.213354399994	8000000
1	20543	0.213582399994	8000000
1	20561	0.213873399994	8000000
1	20567	0.214159399994	8000000
1	20579	0.214458399994	8000000
1	20603	0.214681399994	8000000
1	20612	0.214901399994	8000000
1	20633	0.215208399994	8000000
1	20650	0.215413399994	8000000
1	20652	0.215448399994	10000000
1	20673	0.215738399994	10000000
1	20695	0.216057599994	10000000
1	20704	0.216262399994	10000000
1	20714	0.216448399994	1000000
1	20725	0.216527199994	1000000
1	20780	0.218327199994	1000000
1	20866	0.220448399994	2000000
1	20870	0.220583999999	2000000
1	20873	0.220647199994	2000000
1	20933	0.222235199994	2000000
1	20991	0.223583199994	2000000
1	21034	0.224643199994	2000000
1	21064	0.225448399994	4000000
1	21073	0.226091199994	4000000
1	21098	0.226731199994	4000000
1	21107	0.227173199994	4000000
1	21121	0.227413199994	10000000
1	21124	0.227587199994	10000000
1	21138	0.227771199994	10000000
1	21144	0.227943999994	10000000
1	21159	0.228184799994	10000000
1	21167	0.228408799994	10000000
1	21169	0.228413199994	1000000
1	21188	0.228788799994	1000000
1	21267	0.230540799994	1000000
1	21344	0.232404799994	1000000
1	21346	0.232413199994	2000000
1	21423	0.234444799994	2000000
1	21464	0.235620799994	2000000
1	21486	0.236728799994	2000000
1	21521	0.237413199994	4000000
1	21539	0.237852799994	4000000
1	21550	0.238300799994	4000000
1	21576	0.238886799994	4000000
1	21585	0.238999999999	4000000
1	21599	0.239239999999	10000000
1	21602	0.239306799994	10000000
1	21610	0.239516399994	10000000
1	21616	0.239733199994	10000000
1	21628	0.239945199994	10000000
1	21642	0.240155599994	10000000
1	21647	0.240239999999	1000000
1	21650	0.240332399994	1000000
1	21689	0.241255999999	1000000
1	21711	0.242036399994	1000000
1	21766	0.243772399994	1000000
1	21786	0.244239999999	2000000
1	21823	0.246004399994	2000000
1	21843	0.247348399994	2000000
1	21893	0.249132399994	2000000
1	21895	0.249239999999	4000000
1	21947	0.250536399994	4000000
1	21988	0.251368399994	4000000
1	22011	0.251966399994	4000000
1	22038	0.252552399994	4000000
1	22065	0.253170399994	4000000
1	22075	0.253410399994	10000000
1	22093	0.253758399994	10000000
1	22099	0.253919199994	10000000
1	22107	0.254202399994	10000000
1	22113	0.254402399994	10000000
1	22115	0.254410399994	1000000
1	22127	0.254567199994	1000000
1	22134	0.254807199994	10000000
1	22163	0.255807199994	1000000
1	22197	0.256719728228	1000000
1	22235	0.257840843667	1000000
1	22237	0.257855199994	1000000
1	22292	0.259559999999	1000000
1	22308	0.259807199994	2000000
1	22316	0.260167199994	2000000
1	22354	0.261351999999	2000000
1	22357	0.261635199994	2000000
1	22421	0.262959999999	2000000
1	22432	0.263187199994	2000000
1	22479	0.264407199994	2000000
1	22494	0.264807199994	4000000
1	22519	0.265647199994	4000000
1	22544	0.266149199993	4000000
1	22572	0.266667199993	4000000
1	22584	0.267185199993	4000000
1	22606	0.268003199993	4000000
1	22650	0.269141199993	4000000
1	22658	0.269725199993	4000000
1	22660	0.269807199994	8000000
1	22678	0.270279199993	8000000
1	22685	0.270542199993	8000000
1	22697	0.270791199992	8000000
1	22703	0.270997199992	8000000
1	22721	0.271237199992	10000000
1	22728	0.271377199992	10000000
1	22731	0.271541199992	10000000
1	22737	0.271885199992	10000000
1	22743	0.272129199992	10000000
1	22745	0.272237199992	1000000
1	22761	0.272432399992	1000000
1	22852	0.275304399992	1000000
1	22897	0.276237199992	2000000
1	22919	0.277136399992	2000000
1	22956	0.278048399992	2000000
1	22993	0.278924399992	2000000
1	23015	0.280168399992	2000000
1	23046	0.281020399992	2000000
1	23054	0.281237199992	4000000
1	23058	0.281260399992	10000000
1	23078	0.282060399991	10000000
1	23082	0.282230799991	10000000
1	23084	0.282260399992	1000000
1	23091	0.282463599991	1000000
1	23148	0.284351599991	1000000
1	23204	0.286260399992	2000000
1	23246	0.287719599991	2000000
1	23288	0.288819599991	2000000
1	23310	0.289635599991	2000000
1	23315	0.289875599991	10000000
1	23345	0.290699599991	10000000
1	23356	0.290875599991	1000000
1	23358	0.290995599991	1000000
1	23452	0.293035599991	1000000
1	23473	0.293463999999	1000000
1	23529	0.294875599991	2000000
1	23537	0.295091599991	2000000
1	23550	0.295331599991	10000000
1	23565	0.295995599991	10000000
1	23575	0.296278799991	10000000
1	23577	0.296331599991	1000000
1	23582	0.29653639999	1000000
1	23716	0.29976039999	1000000
1	23743	0.300331599991	2000000
1	23776	0.30145639999	2000000
1	23861	0.30356839999	2000000
1	23893	0.30494039999	2000000
1	23906	0.305331599991	4000000
1	23930	0.30603239999	4000000
1	23940	0.30627239999	10000000
1	23965	0.30679239999	10000000
1	23977	0.30703639999	10000000
1	23984	0.30726439999	10000000
1	23987	0.30727239999	1000000
1	23999	0.30743479999	1000000
1	24014	0.30767479999	10000000
1	24052	0.30867479999	1000000
1	24082	0.309640867645	1000000
1	24124	0.310585405654	1000000
1	24144	0.31139479999	1000000
1	24179	0.312527999999	1000000
1	24186	0.31267479999	2000000
1	24265	0.31500279999	2000000
1	24308	0.31606279999	2000000
1	24333	0.317263999999	2000000
1	24345	0.31743879999	2000000
1	24347	0.317503999999	10000000
1	24372	0.31825879999	10000000
1	24381	0.31845239999	10000000
1	24386	0.31849879999	10000000
1	24394	0.31862279999	10000000
1	24404	0.31879159999	10000000
1	24413	0.31910279999	10000000
1	24426	0.31932519999	10000000
1	24431	0.31949879999	1000000
1	24433	0.31950279999	1000000
1	24540	0.32248679999	1000000
1	24569	0.32349879999	2000000
1	24606	0.32452679999	2000000
1	24650	0.32551479999	2000000
1	24718	0.32693079999	2000000
1	24768	0.327934799989	2000000
1	24776	0.32849879999	4000000
1	24802	0.328886799989	4000000
1	24827	0.329334799989	4000000
1	24859	0.329746799989	4000000
1	24878	0.330319999999	4000000
1	24893	0.330559999999	10000000
1	24896	0.330644799989	10000000
1	24908	0.330880799989	10000000
1	24918	0.331051199989	10000000
1	24925	0.331248799989	10000000
1	24943	0.331471199989	10000000
1	24945	0.331559999999	1000000
1	24947	0.331746399989	1000000
1	25027	0.333362399989	1000000
1	25066	0.334970399989	1000000
1	25072	0.335247999999	1000000
1	25092	0.335559999999	2000000
1	25120	0.336786399989	2000000
1	25184	0.338358399989	2000000
1	25222	0.339294399989	2000000
1	25230	0.339534399989	10000000
1	25265	0.340314399989	10000000
1	25274	0.340511199989	10000000
1	25276	0.340534399989	1000000
1	25286	0.340745599989	1000000
1	25349	0.342353599989	1000000
1	25427	0.344097599989	1000000
1	25442	0.344534399989	2000000
1	25502	0.346833599989	2000000
1	25544	0.347961599989	2000000
1	25559	0.348201599989	10000000
1	25574	0.348945599989	10000000
1	25581	0.349193599989	10000000
1	25583	0.349201599989	1000000
1	25592	0.349388799989	1000000
1	25663	0.351916799989	1000000
1	25706	0.353201599989	2000000
1	25731	0.354076799989	2000000
1	25754	0.355216799989	2000000
1	25774	0.355456799989	10000000
1	25799	0.356128799989	10000000
1	25813	0.356320799989	10000000
1	25821	0.356456799989	1000000
1	25826	0.356503199989	1000000
1	25877	0.358223199989	1000000
1	25900	0.358823999999	1000000
1	25938	0.360255199989	1000000
1	25949	0.360456799989	2000000
1	26006	0.362287199989	2000000
1	26018	0.362527199989	10000000
1	26050	0.363527199989	1000000
1	26052	0.363739199989	1000000
1	26151	0.366155199989	1000000
1	26191	0.367527199989	2000000
1	26207	0.367923199989	2000000
1	26250	0.369123199989	2000000
1	26295	0.370291199989	2000000
1	26351	0.372055199989	2000000
1	26386	0.372527199989	4000000
1	26388	0.372907199989	4000000
1	26404	0.373383199989	4000000
1	26414	0.373797199989	4000000
1	26431	0.374295199988	4000000
1	26450	0.374783199988	4000000
1	26460	0.375023199988	10000000
1	26477	0.375599199988	10000000
1	26489	0.375875199988	10000000
1	26499	0.376023199988	1000000
1	26509	0.376140799988	1000000
1	26583	0.378596799988	1000000
1	26656	0.380023199988	2000000
1	26680	0.380436799988	2000000
1	26720	0.381268799988	2000000
1	26722	0.381271999999	2000000
2	7625	0.049472	0.049472
3	1166	0.015	10000000
3	1329	0.016	1000000
3	1337	0.016023199999	1000000
3	1372	0.016263199999	10000000
3	1530	0.017263199999	1000000
3	1688	0.018232966714	1000000
3	1729	0.018479199999	1000000
3	1740	0.018576	1000000
3	1783	0.018816	10000000
3	1946	0.019816	1000000
3	2117	0.020719199999	1000000
3	2159	0.020959199999	10000000
3	2346	0.021959199999	1000000
3	2491	0.022655199999	1000000
3	2538	0.022895199999	10000000
3	2729	0.023895199999	1000000
3	2930	0.024949311074	1000000
3	2962	0.025135199999	1000000
3	3014	0.025375199999	10000000
3	3193	0.026375199999	1000000
3	3390	0.027370649993	1000000
3	3411	0.027487199999	1000000
3	3463	0.027727199999	10000000
3	3645	0.028727199999	1000000
3	3714	0.029087199999	1000000
3	3761	0.029327199999	10000000
3	3934	0.030327199999	1000000
3	4153	0.031451580806	1000000
3	4326	0.032414032968	1000000
3	4515	0.03346510748	1000000
3	4652	0.034167199999	1000000
3	4682	0.034327199999	2000000
3	4752	0.034616	2000000
3	4793	0.034856	10000000
3	4977	0.035856	1000000
3	5072	0.036295199999	1000000
3	5121	0.036535199999	10000000
3	5302	0.037535199999	1000000
3	5386	0.037999199999	1000000
3	5438	0.038239199999	10000000
3	5603	0.039239199999	1000000